<?xml version="1.0" encoding="UTF-8"?>

<!-- generated on 2025-11-09T01:05:23.031189-05:00 by Eclipse SUMO sumo v1_24_0+1816-7f71e6754ac
<sumoConfiguration xmlns:xsi="http://www.w3.org/2001/XMLSchema-instance" xsi:noNamespaceSchemaLocation="http://sumo.dlr.de/xsd/sumoConfiguration.xsd">

    <input>
        <net-file value="road.net.xml"/>
        <route-files value="routes.rou.xml"/>
    </input>

    <output>
        <fcd-output value="fcd-output.xml"/>
    </output>

    <time>
        <begin value="0"/>
        <end value="200"/>
        <step-length value="1"/>
    </time>

    <traci_server>
        <remote-port value="58953"/>
    </traci_server>

</sumoConfiguration>
-->

<fcd-export xmlns:xsi="http://www.w3.org/2001/XMLSchema-instance" xsi:noNamespaceSchemaLocation="http://sumo.dlr.de/xsd/fcd_file.xsd">
    <timestep time="0.00"/>
    <timestep time="1.00">
        <vehicle id="v0" x="5.10" y="-1.60" angle="90.00" type="car" speed="0.00" pos="5.10" lane="e0_0" slope="0.00"/>
    </timestep>
    <timestep time="2.00">
        <vehicle id="v0" x="5.65" y="-1.60" angle="90.00" type="car" speed="0.55" pos="5.65" lane="e0_0" slope="0.00"/>
    </timestep>
    <timestep time="3.00">
        <vehicle id="v0" x="6.85" y="-1.60" angle="90.00" type="car" speed="1.20" pos="6.85" lane="e0_0" slope="0.00"/>
    </timestep>
    <timestep time="4.00">
        <vehicle id="v0" x="9.03" y="-1.60" angle="90.00" type="car" speed="2.18" pos="9.03" lane="e0_0" slope="0.00"/>
    </timestep>
    <timestep time="5.00">
        <vehicle id="v0" x="11.96" y="-1.60" angle="90.00" type="car" speed="2.93" pos="11.96" lane="e0_0" slope="0.00"/>
    </timestep>
    <timestep time="6.00">
        <vehicle id="v0" x="15.59" y="-1.60" angle="90.00" type="car" speed="3.63" pos="15.59" lane="e0_0" slope="0.00"/>
    </timestep>
    <timestep time="7.00">
        <vehicle id="v0" x="20.21" y="-1.60" angle="90.00" type="car" speed="4.61" pos="20.21" lane="e0_0" slope="0.00"/>
    </timestep>
    <timestep time="8.00">
        <vehicle id="v0" x="25.45" y="-1.60" angle="90.00" type="car" speed="5.24" pos="25.45" lane="e0_0" slope="0.00"/>
    </timestep>
    <timestep time="9.00">
        <vehicle id="v0" x="31.56" y="-1.60" angle="90.00" type="car" speed="6.12" pos="31.56" lane="e0_0" slope="0.00"/>
    </timestep>
    <timestep time="10.00">
        <vehicle id="v0" x="38.41" y="-1.60" angle="90.00" type="car" speed="6.84" pos="38.41" lane="e0_0" slope="0.00"/>
    </timestep>
    <timestep time="11.00">
        <vehicle id="v0" x="45.88" y="-1.60" angle="90.00" type="car" speed="7.47" pos="45.88" lane="e0_0" slope="0.00"/>
    </timestep>
    <timestep time="12.00">
        <vehicle id="v0" x="54.35" y="-1.60" angle="90.00" type="car" speed="8.47" pos="54.35" lane="e0_0" slope="0.00"/>
    </timestep>
    <timestep time="13.00">
        <vehicle id="v0" x="63.48" y="-1.60" angle="90.00" type="car" speed="9.13" pos="63.48" lane="e0_0" slope="0.00"/>
    </timestep>
    <timestep time="14.00">
        <vehicle id="v0" x="73.38" y="-1.60" angle="90.00" type="car" speed="9.90" pos="73.38" lane="e0_0" slope="0.00"/>
    </timestep>
    <timestep time="15.00">
        <vehicle id="v0" x="84.06" y="-1.60" angle="90.00" type="car" speed="10.67" pos="84.06" lane="e0_0" slope="0.00"/>
    </timestep>
    <timestep time="16.00">
        <vehicle id="v0" x="95.45" y="-1.60" angle="90.00" type="car" speed="11.39" pos="95.45" lane="e0_0" slope="0.00"/>
    </timestep>
    <timestep time="17.00"/>
</fcd-export>
