<?xml version="1.0" encoding="UTF-8"?>

<!-- generated on 2025-11-16T16:26:39.825210-05:00 by Eclipse SUMO sumo v1_24_0+1816-7f71e6754ac
<sumoConfiguration xmlns:xsi="http://www.w3.org/2001/XMLSchema-instance" xsi:noNamespaceSchemaLocation="http://sumo.dlr.de/xsd/sumoConfiguration.xsd">

    <input>
        <net-file value="road.net.xml"/>
        <route-files value="routes.rou.xml"/>
    </input>

    <output>
        <fcd-output value="fcd-output.xml"/>
    </output>

    <time>
        <begin value="0"/>
        <end value="200"/>
        <step-length value="1.0"/>
    </time>

    <traci_server>
        <remote-port value="60765"/>
    </traci_server>

</sumoConfiguration>
-->

<fcd-export xmlns:xsi="http://www.w3.org/2001/XMLSchema-instance" xsi:noNamespaceSchemaLocation="http://sumo.dlr.de/xsd/fcd_file.xsd">
    <timestep time="0.00"/>
    <timestep time="1.00">
        <vehicle id="lead" x="5.00" y="-1.60" angle="90.00" type="car" speed="10.00" pos="5.00" lane="e0_0" slope="0.00"/>
    </timestep>
    <timestep time="2.00">
        <vehicle id="lead" x="15.67" y="-1.60" angle="90.00" type="car" speed="10.67" pos="15.67" lane="e0_0" slope="0.00"/>
    </timestep>
    <timestep time="3.00">
        <vehicle id="ego" x="0.00" y="-1.60" angle="90.00" type="car" speed="0.00" pos="0.00" lane="e0_0" slope="0.00"/>
        <vehicle id="lead" x="27.10" y="-1.60" angle="90.00" type="car" speed="11.44" pos="27.10" lane="e0_0" slope="0.00"/>
    </timestep>
    <timestep time="4.00">
        <vehicle id="ego" x="0.91" y="-1.60" angle="90.00" type="car" speed="0.91" pos="0.91" lane="e0_0" slope="0.00"/>
        <vehicle id="lead" x="39.71" y="-1.60" angle="90.00" type="car" speed="12.61" pos="39.71" lane="e0_0" slope="0.00"/>
    </timestep>
    <timestep time="5.00">
        <vehicle id="ego" x="2.98" y="-1.60" angle="90.00" type="car" speed="2.08" pos="2.98" lane="e0_0" slope="0.00"/>
        <vehicle id="lead" x="53.17" y="-1.60" angle="90.00" type="car" speed="13.46" pos="53.17" lane="e0_0" slope="0.00"/>
    </timestep>
    <timestep time="6.00">
        <vehicle id="ego" x="6.11" y="-1.60" angle="90.00" type="car" speed="3.13" pos="6.11" lane="e0_0" slope="0.00"/>
        <vehicle id="lead" x="66.61" y="-1.60" angle="90.00" type="car" speed="13.44" pos="66.61" lane="e0_0" slope="0.00"/>
    </timestep>
    <timestep time="7.00">
        <vehicle id="ego" x="10.00" y="-1.60" angle="90.00" type="car" speed="3.88" pos="10.00" lane="e0_0" slope="0.00"/>
        <vehicle id="lead" x="80.18" y="-1.60" angle="90.00" type="car" speed="13.56" pos="80.18" lane="e0_0" slope="0.00"/>
    </timestep>
    <timestep time="8.00">
        <vehicle id="ego" x="14.68" y="-1.60" angle="90.00" type="car" speed="4.68" pos="14.68" lane="e0_0" slope="0.00"/>
        <vehicle id="lead" x="94.06" y="-1.60" angle="90.00" type="car" speed="13.89" pos="94.06" lane="e0_0" slope="0.00"/>
    </timestep>
    <timestep time="9.00">
        <vehicle id="ego" x="20.29" y="-1.60" angle="90.00" type="car" speed="5.61" pos="20.29" lane="e0_0" slope="0.00"/>
    </timestep>
    <timestep time="10.00">
        <vehicle id="ego" x="26.75" y="-1.60" angle="90.00" type="car" speed="6.47" pos="26.75" lane="e0_0" slope="0.00"/>
    </timestep>
    <timestep time="11.00">
        <vehicle id="ego" x="34.26" y="-1.60" angle="90.00" type="car" speed="7.51" pos="34.26" lane="e0_0" slope="0.00"/>
    </timestep>
    <timestep time="12.00">
        <vehicle id="ego" x="42.94" y="-1.60" angle="90.00" type="car" speed="8.67" pos="42.94" lane="e0_0" slope="0.00"/>
    </timestep>
    <timestep time="13.00">
        <vehicle id="ego" x="52.29" y="-1.60" angle="90.00" type="car" speed="9.35" pos="52.29" lane="e0_0" slope="0.00"/>
    </timestep>
    <timestep time="14.00">
        <vehicle id="ego" x="62.64" y="-1.60" angle="90.00" type="car" speed="10.36" pos="62.64" lane="e0_0" slope="0.00"/>
    </timestep>
    <timestep time="15.00">
        <vehicle id="ego" x="73.79" y="-1.60" angle="90.00" type="car" speed="11.15" pos="73.79" lane="e0_0" slope="0.00"/>
    </timestep>
    <timestep time="16.00">
        <vehicle id="ego" x="86.10" y="-1.60" angle="90.00" type="car" speed="12.32" pos="86.10" lane="e0_0" slope="0.00"/>
    </timestep>
    <timestep time="17.00">
        <vehicle id="ego" x="98.83" y="-1.60" angle="90.00" type="car" speed="12.73" pos="98.83" lane="e0_0" slope="0.00"/>
    </timestep>
    <timestep time="18.00"/>
</fcd-export>
